273
C=0 M=1 ++ Energy: -4281168.508983974 kcal/mol (wB97M-V / def2-TZVP / SMD(Water)) ++ ChemEnsembleNo: 1 ++ ConformerNo: 1 ++ Version: 1.12.0
H             14.7064032040943307             9.9602554944303296             2.1488199172779501
O             14.6963274155905204            10.1088052914705404             3.1049067271232902
C             13.9084176063714295             9.0604853830208807             3.7031957174374499
C             14.5947342784991800             7.7296698311619103             3.4321244543466700
C             13.7897727885149308             9.3638906438524998             5.1812937887022601
H             12.9079695656127207             9.0411136116914594             3.2423462448491902
O             13.7577993137146208             6.6699520872766902             3.8966027540274100
H             14.7728623408989996             7.6197263089684304             2.3495585628828999
H             15.5698369716861507             7.6967049811964596             3.9493563612286899
C             14.3195593253112907             5.4052563786817496             3.5544149055153800
C             13.5431470403683605             4.2841286770658504             4.1900477034636703
H             14.3175253501614801             5.2652431839457901             2.4642525645680098
H             15.3645558821623300             5.3531816533290604             3.9001426832229402
H             13.9662443335098896             3.3465505631718599             3.7986894496982200
O             13.7479755210183701             4.3473134547360202             5.6200677344591297
C             12.0354813623461894             4.2977109935960502             3.9389056911686500
C             13.2721289297093907             3.2019998466630999             6.3100506597652704
H             11.5974711890940494             5.2260107530684596             4.3305856348783403
O             11.7447525326184508             4.1612622022280803             2.5407843869024598
C             11.3967283984227503             3.0946191239014702             4.6273934877800098
H             13.4972659456959292             3.3797312241337600             7.3689081164642003
O             13.8978179433695495             2.0253715416711899             5.8528188577390301
C             11.7626121635116299             3.0743604385905701             6.1049214877360898
H             11.7806407731634106             2.1801112527012001             4.1450301904576001
O              9.9724881917661108             3.1392802222176601             4.5354625146416696
C             14.9788918256420605             1.4956939858702101             6.6357663865678198
H             11.2990387237941601             3.9463651698063500             6.5904960849592902
O             11.3424140270027305             1.8700264811442600             6.7510836963600802
H              9.7416743429121802             3.3333776983733201             3.6085024190836599
H             15.0105031786873404             1.9860694583852601             7.6180878488949801
C             16.3223632234052900             1.6618248629473400             5.9228453161919798
C             14.6682236876507197             0.0121192688132000             6.8106693479020199
H             10.3762711254592297             1.8686361782138601             6.7806366350851404
H             16.2674781130751285             1.1772928642720999             4.9365553174131698
O             17.3340863360538897             1.0042861463691000             6.7221516197072004
C             16.7705416211250693             3.0793277434416702             5.6695860109087501
H             14.5271258475221092            -0.4291297810178100             5.8103889939817499
O             13.4903472304036001            -0.1751453033952400             7.5983050590286396
C             15.8176857612709405            -0.6929252707800100             7.5115671183659902
C             17.1421975381977205            -0.4000007974218200             6.8062680346383804
O             16.6108575503379186             3.9008089255573601             6.8246347270881200
H             17.8274187947408187             3.0531207356783399             5.3608938848064600
H             16.1864368135518184             3.4878573479494301             4.8337284995232697
H             12.7817133134180807             0.3484898661189800             7.1867519732691303
H             15.9014413396243892            -0.3023294731578700             8.5371743728758709
O             15.6481182701483998            -2.1124200623253402             7.5382055286694802
H             17.9833095086152497            -0.7824060222773100             7.3966981062659203
O             17.1111865235895202            -0.9981647925291099             5.5275436157539604
C             17.2244136745432499             5.1861545794568000             6.6368988074773103
H             14.8557478887002894            -2.3086303013183702             8.0560912028935299
C             18.2766396462188894            -1.7027307750264400             5.0759042782750097
C             16.5129580652618095             6.2102028914660101             7.4948531891682997
H             17.1469698639100407             5.4906726534090398             5.5807367637500800
H             18.2896608151064193             5.1319644925203498             6.9092533074645504
C             17.2442233852640285             7.5382269083777098             7.4669787604111004
O             15.1750495784489505             6.4400653443562499             7.0108045987048104
H             16.4641441027892697             5.8313390835777801             8.5292203876107404
H             16.6820161208709514             8.2906355930446392             8.0284533617829794
H             18.2357198564462486             7.4418221275457501             7.9200103544272000
H             17.3612036630978892             7.8905976352867597             6.4352272660060699
H             14.8205330939526299             5.6036703190983896             6.6616245090059403
H             18.9849842660383210            -1.8345925183401599             5.9047252410656403
C             18.9566164279042404            -0.9604412025422800             3.9227460124047999
C             17.7874820412059904            -3.0663970860983998             4.6004493866224703
H             18.2297565223876106            -0.7985170262937000             3.1125256927840299
O             20.0500388347800396            -1.7767551296530599             3.4460889326702300
C             19.5302558354224907             0.3851598101233200             4.2921629558644998
H             17.0034448137185095            -2.9115770379299102             3.8408557446149798
O             17.2705582886552200            -3.8354656846578798             5.6885759397311801
C             18.9377929886861587            -3.8450393585080498             3.9849579233039001
C             19.6391021328248492            -3.0193830663900898             2.9058911456565300
O             20.3802091730699892             0.2357302610111100             5.4245702571245404
H             20.0969188845802904             0.7857598365800700             3.4348125925739401
H             18.7075435005576587             1.0808582701187399             4.5105494320661403
H             16.6084913274916417            -3.2866900357576401             6.1453195137473999
H             19.6826309353665714            -4.0520652094544296             4.7686829715623800
O             18.5071248755624396            -5.0677266776898300             3.3824987965778699
H             20.5584532174068890            -3.5221593615085500             2.5824842098783498
O             18.7552624442404792            -2.8435548004634201             1.8183991484594100
C             21.0029695932215894             1.4596573222942100             5.8034683595400898
H             18.1331730401693783            -5.6271315545285399             4.0766744099139300
C             19.2707236180737986            -3.0354164159822501             0.4938586288345300
C             21.9132824154968091             1.1737187424048900             6.9902905380039497
H             20.2386169497519610             2.2057204815980000             6.0838623425924698
H             21.5940366327851301             1.8661574373958401             4.9657299436004498
C             23.0850491551639294             0.2887008615101100             6.6207109920339597
O             22.4510022774498914             2.4172270941473202             7.4757377025815197
H             21.3152186231058209             0.6940883958421100             7.7819220470582700
H             23.7165200747029488             0.1012542015616700             7.4948811358051799
H             22.7305921673866393            -0.6741582999028900             6.2415655563191796
H             23.6910908813639516             0.7665297912996500             5.8424828905357202
H             21.7104603334539306             2.9831146110253801             7.7341847417680301
H             20.2666129764295206            -3.4968208004074799             0.5347321921829100
C             19.3483254113767202            -1.7065526720761399            -0.2632730226501800
C             18.3010718737545695            -3.9870591578337802            -0.1989844015337300
H             18.3596834220871585            -1.2230472187316499            -0.2596806332290000
O             19.7422178821479015            -1.9947945134600999            -1.6279618725350200
C             20.3395675910157792            -0.7090671504773000             0.2956084301983700
H             17.2878736799893886            -3.5569342059995699            -0.1391506632023000
O             18.3249980809394515            -5.2769501940543204             0.4135340826910400
C             18.6900072559357895            -4.1587644469651002            -1.6575740893802300
C             18.8145204954558203            -2.7994773170061400            -2.3433710110258499
O             21.6084723634365687            -1.3352275328755800             0.5025236128010500
H             20.4298286079302294             0.1244622126546600            -0.4169969222715000
H             19.9457469733877097            -0.3050545803841800             1.2389491309808900
H             18.1885312544660884            -5.1499061651557803             1.3694366461049401
H             19.6762922895014896            -4.6448457910991898            -1.7077969557203800
O             17.7283759220086488            -4.9222998995447602            -2.3890790366401400
H             19.2363058523562813            -2.9119136080619499            -3.3492610076182499
O             17.5384811024784106            -2.1999748407524602            -2.3955151703963300
C             22.7314835287815917            -0.4879595509391500             0.2463211192989500
H             17.6940657920548006            -5.8067605355602696            -2.0000544649803902
C             17.0966402128766291            -1.6422224985519200            -3.6422541182661199
C             22.9475586500365694             0.6338221045172800             1.2628480499239501
H             22.6424620597414901            -0.0428414462381100            -0.7555498106565200
H             23.6088044921540003            -1.1483118164221100             0.2578128679014500
C             23.1276581097973910             0.1450434974368100             2.6870775469050399
O             24.1005903845619187             1.3780732114583600             0.8145990180001600
H             22.1128981767378185             1.3473956343555100             1.2146278709061400
H             23.3085025338804890             0.9932650657610400             3.3567986926661399
H             22.2356782868827487            -0.3849651436192700             3.0357795734986301
H             23.9821280869197615            -0.5409840442610599             2.7513668219147100
H             24.8708010970399194             0.8016165189579300             0.9224276683484000
H             17.7432843301128997            -1.9816582024890399            -4.4630458782359703
C             17.0816331453028987            -0.1162209415040300            -3.5783221289295599
C             15.6766788790476195            -2.1542895968517501            -3.8587506619031200
H             16.4432167234931690             0.2026810450467600            -2.7399823824286500
O             16.5448388940167206             0.3797813587495500            -4.8228802300840297
C             18.4254655270437588             0.5324522444258500            -3.3745613556954601
H             15.0770121440253302            -1.8915504019046501            -2.9712238561563500
O             15.6604711608641498            -3.5684650458167400            -4.0623647681794299
C             15.0649725962041305            -1.5020436082617701            -5.0905121404040301
C             15.1917196278137094             0.0217618123672800            -5.0372463861686203
O             19.3261478601774783             0.1189388876506500            -4.4017329499648401
H             18.7982763274956604             0.2641405688523300            -2.3754969660477800
H             18.2910838322773017             1.6222336633792400            -3.4077782812115300
H             16.1980826531803785            -3.9723248865128098            -3.3575019007537299
H             15.6230887006926107            -1.8398950393033700            -5.9771155287973796
O             13.6775804695023293            -1.8150356348998300            -5.2355631984768696
H             14.9184607971878194             0.4588188116162800            -6.0057960499413401
O             14.3550633077234604             0.5168875683345100            -4.0131951647527098
C             20.4873004280698296             0.9517158886276900            -4.4923931108493402
H             13.6014862594829395            -2.7667252639643500            -5.3865227945376102
C             13.5613024780562608             1.6804835650030101            -4.2928956975837798
C             21.4318683530519714             0.8042895316261300            -3.3048941330349200
H             21.0039633967433410             0.6407348861449700            -5.4081511240716296
H             20.1860309167720793             2.0078845796709199            -4.5947857904065303
C             22.6928223222720717             1.6145347001509900            -3.5301161839407702
O             21.8014416810954188            -0.5757538043918899            -3.1328660184150201
H             20.9336711087877916             1.1613835592863799            -2.3895778936531502
H             22.4451695115533596             2.6692199231851701            -3.6882911153001099
H             23.3543127247989091             1.5439308072400300            -2.6607462319871100
H             23.2323331717030790             1.2493073046903200            -4.4115579258319597
H             21.0659705272950610            -1.0217538935334400            -2.6771522312411098
H             13.5609612708353193             1.8901273502443601            -5.3713091652275402
C             14.0797965861486105             2.8971785976360498            -3.5211148884854300
C             12.1480750078780702             1.3308672129505399            -3.8383086347239801
H             14.1374775774983394             2.6417880888507099            -2.4513343174771101
O             13.1575208692379704             3.9927150270457799            -3.7167953601682999
C             15.4504403205359093             3.3802663959430399            -3.9252732162410999
H             12.1959707481002901             1.0022745593705100            -2.7871576732982701
O             11.5912798948439502             0.2960340373110300            -4.6514673103002497
C             11.2442330576996099             2.5472634796622700            -3.9421597424208201
C             11.8580509393766196             3.7400048655843401            -3.2094384437711501
O             15.4733436426216500             3.6944448038992301            -5.3209351893857901
H             15.6962210628055097             4.2773349004327796            -3.3351936932047801
H             16.1800943408765399             2.5990908240483401            -3.6796626647495199
H             12.2310793744250308            -0.4375680213476700            -4.6657140955226604
H             11.1493819319842409             2.8305064500119901            -5.0015520530701698
O              9.9508830871560505             2.3128491353662999            -3.3796246598930200
H             11.2789323305391793             4.6492693063679704            -3.4098147892959600
O             11.8827569944727909             3.4571132496059902            -1.8258431210684800
C             16.5873211730620902             4.5109875710481200            -5.6899263682547003
H              9.5244162465066395             1.6129689503387199            -3.8920529512511002
C             11.4905433661879606             4.4936978278401396            -0.9131160014507300
C             17.8953442786995183             3.7262050271637301            -5.7508149735298204
H             16.6926523265295401             5.3454615972013304            -4.9789243813567001
H             16.3544907515304594             4.9219491191061699            -6.6797321678050903
C             17.9225495538236501             2.7310105707406800            -6.8948175985954201
O             18.9303706620426091             4.7209942601067603            -5.8961130533921500
H             18.0393110374161587             3.2024596539489800            -4.7938214801901502
H             18.8435050164070113             2.1369317939313799            -6.8747032876226699
H             17.0746776783655996             2.0422785498813201            -6.8267423450553801
H             17.8635608911001817             3.2592647560215502            -7.8537037585374403
H             19.7684924404940787             4.2487192137322900            -5.9895513124479898
H             11.1043729461691303             5.3628932992780998            -1.4658011809412399
C             10.3821665342159708             3.8986613896337801            -0.0499825604467100
C             12.6721106359148994             4.9213223361812597            -0.0387498213403500
H             10.7592711967003396             2.9640844155649302             0.3961970398966800
O              9.2116397626703996             3.6371342420550601            -0.8253321752569300
C             10.0008624939623694             4.8647003230123698             1.0583326868075900
H             13.1142546038071597             4.0358999868631402             0.4422334548834100
O             12.1997336053554193             5.8397473174171601             0.9728701846604200
C             13.7339182437793195             5.6484483463460400            -0.8266640301238400
H              9.4748226962533693             3.0677476897579798            -1.5704424147547600
H              9.5744197911099196             5.7740939704515899             0.6076897745332500
O              9.0692682871485406             4.2923547306192003             1.9792997849330201
C             11.2364296228029303             5.2869966158545196             1.8529168235381701
O             14.8353365369036307             5.9143347700205302             0.0442367015790700
H             14.0597371903917701             5.0150787379344699            -1.6625715310650500
H             13.3155631248143607             6.5815307539854597            -1.2347870126881799
H              8.2724728481137806             4.0534404956127199             1.4862121510224000
H             10.9816207989297503             6.0889548027366596             2.5558459784946401
C             16.0321910834294812             6.2716310512827498            -0.6426642714881000
C             15.9524295130887506             7.6200688550904996            -1.3535244398205399
H             16.2998511837719491             5.4874594436152302            -1.3699174436816399
H             16.8109327602713385             6.3216661315681497             0.1271525124127200
C             15.5711124958029998             8.7505111833146803            -0.4149841589613800
O             17.2725296631026914             7.8097662567969603            -1.9038010848756699
H             15.2272172953696199             7.5612752872509903            -2.1795001874482400
H             15.5878126268051904             9.7096412685588600            -0.9442424040532500
H             14.5586522433623298             8.5981578911419501            -0.0240739124751800
H             16.2696491680339292             8.8009765809649796             0.4291019178168500
H             17.2506457379639890             8.6170692695538094            -2.4337201722284600
H             13.3140331915468906            10.3372308778097892             5.3375015852712400
H             13.1800752305583604             8.6023193451115691             5.6759414873950798
H             14.7810075621245893             9.3732109639862102             5.6503758822809296
O             24.5456156692794885             3.4052730929311501             4.9398101438509796
O             22.8507534590628012             5.9725817179750296             0.6023311830218100
O             26.7159599632284994             4.6418849548853700             3.9014036266097500
O             27.8159753574303785             6.8184713582163301             4.9266262874199098
O             17.0356722096971396             2.5414511742893300            -0.9322714790345500
C             23.6315256641434992             5.2792652213817597             3.5782304879771401
C             22.2453311761607004             4.9322029930216296             4.1460627826927201
C             21.0984920344239804             5.2955522667843704             3.2092196871347198
C             21.3050008677764602             4.5578672922741301             1.8668932440516199
C             24.5216168240147390             4.8334526582318897             4.7997842704471703
C             23.8323254551944785             4.4768225889527704             2.2977172713920502
C             20.1410723304880293             4.7831515348762599             0.8402432738702600
C             22.7148441877071186             4.6973560850878702             1.2630535946149299
C             22.2605089201218007             5.4978715829246303             5.5708765989444000
C             23.7487647557672190             5.3943372876250200             6.0115326152503199
C             19.7723832127192587             4.8514322745285101             3.8270458666082900
C             23.8142231757544316             6.7873228860624399             3.3493800653152701
C             18.8417247397244196             4.4127590678317796             1.5343073183717699
C             18.5950664355779907             5.0366501522007496             2.8688849713793698
C             20.3641781146000298             3.8701241248985698            -0.3780080028748800
C             19.9790699139827090             6.2543028995827497             0.3787357174055400
C             25.9628194231910712             5.2917805712110004             4.6204057925374498
C             19.1140004377396586             3.7082429696855401            -1.2350219904335999
C             17.9006167926684689             3.6233243785344502             0.9651016287298601
C             17.9527410710642101             3.2075298115032398            -0.4223416394190200
C             26.4991529745229002             6.4991708829561698             5.3374772062230003
H             22.2246595670844904             3.8350267605624402             4.2317819669129602
H             21.0713400449582515             6.3838003578892897             3.0557878403752001
H             21.2444163698137309             3.4849617673222002             2.1256214490437899
H             23.8285221190065002             3.4067302755795601             2.5365234456509800
H             24.7953226403141507             4.6984180648597498             1.8156062062352800
H             22.8307041155925994             3.9068225686284301             0.5057138393308200
H             21.5996028448839894             4.9371776993816097             6.2393697631944303
H             21.9268578678617487             6.5422128863527602             5.5781776637941096
H             24.1308127615913683             6.3764336727779503             6.2975945752671301
H             23.8957340537378897             4.7303502291166204             6.8672201434210098
H             19.5765454915380488             5.4045453570227799             4.7522044601267002
H             19.8537162379476193             3.7870748133836001             4.0966758639451299
H             24.7956548751957691             6.9957557306328804             2.9059021632945301
H             23.0628173076358998             7.1701541131987598             2.6592818530021400
H             23.7326276386153694             7.3570890603413703             4.2794202258749703
H             18.4421676328494009             6.1153236722846103             2.7054983030740201
H             17.6675940369757782             4.6454335818158201             3.2995138910668902
H             20.6734109634614001             2.8758414507654200            -0.0235550214123200
H             21.1807053744937903             4.2659752640668298            -0.9907335016351400
H             20.0760964503741093             6.9559783332967999             1.2106681216138999
H             20.7282482629740095             6.5057542459041802            -0.3724785675934800
H             18.9901379935418291             6.4056818835544602            -0.0642863835443100
H             25.1052778410661688             3.0501907560044001             4.2323114807918101
H             19.2903898675561294             3.0337923898887200            -2.0788065253240799
H             18.8014463565203087             4.6746161672853201            -1.6618295860294401
H             23.7900735951868008             6.0893131460088297             0.4073559463666000
H             16.9925631082241289             3.3757909589681998             1.5142880149381299
H             26.4653004102873304             6.2544615128334398             6.4148283763040999
H             25.8423771792485901             7.3653897383236000             5.1915866810316604
H             28.1357949403142413             6.0495313568497400             4.4241736660727904
