261
C=0 M=1 ++ Energy: -4065533.8081496595 kcal/mol (wB97M-V / def2-TZVP / SMD(Water)) ++ ChemEnsembleNo: 1 ++ ConformerNo: 1 ++ Version: 1.12.0
H             15.4614008943459194             9.4374661862578595             1.8797016790145400
O             15.3909640150078602             9.6462851483517191             2.8218229405641102
C             14.3269713671985102             8.8460424221522302             3.3750004818147499
C             14.6984290913597402             7.3801137728770403             3.2045215241744698
C             14.1658535695274104             9.2520753339249602             4.8237818407854602
H             13.3930277396652908             9.0396530696992095             2.8238361960856899
O             13.6118820297058996             6.5590576333175701             3.6540031006916198
H             14.9044144044749594             7.1777970046665898             2.1422346115702000
H             15.6099600712613693             7.1507861459205699             3.7835439361806502
C             13.8664031369151193             5.1838252682709802             3.3553763405045101
C             12.8239987690740698             4.2844636384468604             3.9685314973862198
H             13.8802598185797201             5.0240273185854001             2.2680727580887101
H             14.8522056836173597             4.8944849012121798             3.7549510451984500
H             13.1306672635725992             3.2588582670239798             3.7120417440392601
O             12.8624376165918104             4.4646228591689203             5.3994984926758898
C             11.3745585479416906             4.4892436559666899             3.5274146561630801
C             12.1772037217024902             3.4476785624109900             6.1088150282782401
H             11.0401022727797002             5.5029052093987403             3.7875860905675900
O             11.2303979475727793             4.2607482278132496             2.1162041726878300
C             10.4983249799426499             3.4476600046794701             4.2260119515717403
H             12.3081026013194492             3.6811809299892002             7.1719511869429704
O             12.7028190465200606             2.1717271714929098             5.8087138795697504
C             10.6961475904838608             3.4835452478975300             5.7354041638485604
H             10.7946096223315706             2.4543745268079098             3.8482561163584199
O              9.1124093640026693             3.6758474572668498             3.9711804631573000
C             13.5287257482928993             1.5271846570557901             6.7910152205563197
H             10.2940342047968496             4.4348434490882296             6.1164370985273102
O             10.0600623067515897             2.3817100099205701             6.3881374069578696
H              8.9886040944350007             3.7011124343525799             3.0041571201750901
H             13.2464269076848602             1.8615049785148301             7.7983173397550498
C             15.0203487332028693             1.7885126620405800             6.5483686475075196
C             13.2137935216250302             0.0438742918511700             6.6421488108973996
H              9.1046013007708400             2.5027330120379601             6.3059129467650497
H             15.2620462849894594             1.5214357541259000             5.5085786149800704
O             15.7894501281607695             0.9600410779628800             7.4527403047702299
C             15.4541374993561504             3.2208428019252699             6.7562772132380600
H             13.3670871543381793            -0.2397646494307000             5.5882346946010903
O             11.8641459050844809            -0.2285733653080100             7.0312060273809500
C             14.1327381984630502            -0.7854566427956799             7.5220846315555301
C             15.5945421619218294            -0.4306898334643600             7.2525983105946601
O             14.9380427006611605             3.6967792840999798             8.0020058860085896
H             16.5551582997077418             3.2659528319247300             6.7592263336635101
H             15.0876163843197606             3.8198187131952799             5.9168126626222204
H             11.2991977635117404             0.4142936996925700             6.5722421474140003
H             13.9284178439186004            -0.5479636922303700             8.5770022233643708
O             13.9788483478769496            -2.1887431340831500             7.2952926290900102
H             16.2488801015386599            -0.9302101553550201             7.9770657219956700
O             15.9154932358825008            -0.8219003693160500             5.9340478123349802
C             15.4133011150547308             4.9876522139397004             8.4014126781132905
H             13.0807733487971891            -2.4375030364007499             7.5524396355412797
C             17.1778774227088107            -1.4651492709957801             5.7064321252796297
C             14.7081099784810494             6.1557066680238002             7.7289585269994898
H             16.4990310473926698             5.0622178361358801             8.2362309201660509
H             15.2261552400173805             5.0447815559748097             9.4795229234133505
C             14.9921551217792306             7.4511241962513903             8.4758446478710301
O             15.1744875791252802             6.2679729524419399             6.3653959028992002
H             13.6274024143684294             5.9524234343272600             7.7239901646412203
H             14.5168741385457292             8.2931903827078006             7.9631278256708002
H             14.6057685523160306             7.4077580203544802             9.4996164522105904
H             16.0724272106088186             7.6373838583179001             8.5180282880133706
H             14.4153439017650395             6.4582831000159198             5.7949976016032503
H             17.6918730042374008            -1.6466714095827699             6.6599587848282997
C             18.0551886695289596            -0.6058507475969500             4.7943749824589004
C             16.8708632685531690            -2.7950074949973298             5.0272241359858496
H             17.5066009909182299            -0.3890601708487700             3.8648773829710898
O             19.2643980872952483            -1.3381259947711699             4.4919088179014697
C             18.4669202441637097             0.7184120632286600             5.3855044923781996
H             16.2665880722155514            -2.5955129552808698             4.1270171014318002
O             16.1679490189185806            -3.6748183613133198             5.9062584899328403
C             18.1655848255858814            -3.4805092914422100             4.6236796063958900
C             19.0424002196879698            -2.5468654877753800             3.7874771293830101
O             19.1239251308205489             0.5096164007880800             6.6328251508037104
H             19.1398102441044600             1.2331029245725000             4.6809192114568496
H             17.5732066623797714             1.3446393920605799             5.5191935625773896
H             15.3712900968357893            -3.2069153981165899             6.2140204215695798
H             18.7325825839734215            -3.7278193747668200             5.5343209650014904
O             17.9342299316422995            -4.6632651706199999             3.8552948359138699
H             20.0347170054013795            -2.9903614812212100             3.6413108412399802
O             18.4128354981190689            -2.3147264088409001             2.5446268485957999
C             19.4719272226703808             1.7475230730956901             7.2503699875396901
H             17.4324922486872786            -5.2825921123862498             4.4022160991293999
C             19.2266912672154895            -2.3708573412254998             1.3634614842896400
C             20.2259503212570202             1.4559185184037799             8.5405005985676006
H             18.5582115631729287             2.3227501895088798             7.4735431077609196
H             20.1015739232297399             2.3497217620273299             6.5741856822386797
C             21.5681055913344508             0.7992984329753100             8.2981421442261603
O             20.4760264540044510             2.7016100481132099             9.2202704292689006
H             19.6000291678747587             0.8074844007141300             9.1742322047813207
H             22.0644515138140989             0.5735965991393600             9.2471560876167196
H             21.4401474242855805            -0.1360578381307700             7.7453992762759896
H             22.2136032844840301             1.4626443572935000             7.7111482220229401
H             19.6218413660503614             3.1136460410840199             9.4110829846103297
H             20.2540662030013792            -2.6624130079502102             1.6204123794913901
C             19.2333337554769912            -1.0152155660980999             0.6540452016406700
C             18.5992251050897011            -3.4284031935634398             0.4580970618012100
H             18.1970034203870412            -0.7129874758403700             0.4408551057589400
O             19.9617744829600916            -1.1688898260015099            -0.5863489830825700
C             19.8684632369144296             0.1228322258496500             1.4179545850633199
H             17.5374623882357490            -3.1682360635183602             0.3139582840722200
O             18.7136641689956988            -4.7327214947158804             1.0282229921391599
C             19.2960887909714316            -3.4585313701351699            -0.8919879774788900
C             19.3571812618997008            -2.0629030647707101            -1.5087970931944701
O             21.2135250283897285            -0.2057380486676000             1.7767432231662299
H             19.8546176498043501             1.0177264963076700             0.7758167873634200
H             19.2599478641416084             0.3335191619679500             2.3089006584694101
H             18.3088831816995210            -4.7056592482726103             1.9140856407175100
H             20.3339445032591009            -3.7956258289503899            -0.7464198809662000
O             18.6283307292317097            -4.3110500938031402            -1.8252353782034101
H             20.0085253325399890            -2.0636534966297400            -2.3912130037843999
O             18.0525126686108486            -1.6474466148228200            -1.8444633684132099
C             22.0608110849184484             0.9389124520036300             1.8988597366249500
H             18.6526640065323903            -5.2112320468439801            -1.4728201651155699
C             17.8315348724308294            -1.1010418438071401            -3.1538562952179801
C             21.7722827528553218             1.7732769569755600             3.1429281299106600
H             21.9594646604420483             1.5775916790142299             1.0083644657087201
H             23.0878732402280811             0.5567986580833800             1.9398747749951100
C             22.0981587256882399             1.0483586298356899             4.4342593380520698
O             22.5879992245988106             2.9532922496965099             2.9843115826192701
H             20.7098025382303703             2.0673690751625902             3.1400379721549898
H             21.9205883021587518             1.7054688887532501             5.2927012309668902
H             21.4648009371358199             0.1627444771331000             4.5494571017910204
H             23.1483968127363617             0.7338371649920400             4.4433967932768503
H             22.4417203520841610             3.5082770981628699             3.7621924862649498
H             18.6602467768011202            -1.3699986067978700            -3.8227891962879501
C             17.6732221499134994             0.4191582664307700            -3.1033228145439602
C             16.5438784667202512            -1.7471811036504199            -3.6538524849644598
H             16.8636938676795900             0.6754812439461800            -2.4032212452505699
O             17.3326196631482006             0.8762351064270800            -4.4312567808306298
C             18.8966321845378502             1.1797980310356100            -2.6517876441736798
H             15.7547142199922199            -1.5692293043694401            -2.9045856415718601
O             16.7215526652998108            -3.1510694598220899            -3.8547698975349500
C             16.1209710204699910            -1.1331996847663299            -4.9800025092657698
C             16.0812321537488714             0.3923280901452700            -4.8878063477076799
O             20.0375802027608287             0.7714286111953100            -3.4073183593166001
H             19.0418161178236005             0.9976396499448200            -1.5776062550185901
H             18.7117951769749702             2.2562268294136101            -2.7955369716493599
H             17.1588144744869808            -3.5071414053492700            -3.0609531967921799
H             16.8683764794693296            -1.3932549176868001            -5.7444671627958996
O             14.8230374480610507            -1.5719255265963801            -5.3907786591736198
H             15.9357518534732492             0.8309605886732900            -5.8825111707452296
O             15.0322557596774207             0.7624098636949100            -4.0178674857370904
C             21.1531605719587503             1.6606181517363501            -3.2706859034681299
H             14.8811492521481608            -2.5095915526815000            -5.6178924258321796
C             14.1648492847824503             1.8363563253016499            -4.4094097019732699
C             21.7921389399113288             1.6465418888887400            -1.8869020271740899
H             21.8881699476295211             1.3282227108116000            -4.0132595339528603
H             20.8425830950841089             2.6885148960903198            -3.5166400771442698
C             22.9949269100563001             2.5689148497232899            -1.8569227667120300
O             22.2323466012547506             0.3198752359999100            -1.5433777218286200
H             21.0592918764087784             1.9839671505894401            -1.1372921554333399
H             22.7002449737221212             3.5945645273255802            -2.1018388488875299
H             23.4479797233734288             2.5709487862255198            -0.8606263387126000
H             23.7487476194418790             2.2418041889067699            -2.5824955232353601
H             21.4468980326893686            -0.1810827011588100            -1.2611835754761800
H             14.2840213873269501             2.0531612073036101            -5.4800113260395902
C             14.4357884658845705             3.0913505082451298            -3.5791941837482999
C             12.7496645757741600             1.3336349378276899            -4.1373910368057398
H             14.3518852288435195             2.8329726745660500            -2.5117168998943602
O             13.4431759005739995             4.0856513420161100            -3.9207027174050801
C             15.7931984334000592             3.7242203593719601            -3.7609225316833901
H             12.7013982618522903             1.0039228542856200            -3.0863914771958201
O             12.4135423936348595             0.2512071810139900            -5.0077114141667796
C             11.7352360585119495             2.4441702948873401            -4.3578988946286099
C             12.1215645084050792             3.7013017857916100            -3.5784004652570900
O             16.0455143454563185             4.0151860247981297            -5.1393335851842199
H             15.8156939309486795             4.6553057811187797            -3.1771843083756002
H             16.5556008073343897             3.0471453358843301            -3.3536686531795699
H             13.1333368751354396            -0.4012755393649700            -4.9505801307677402
H             11.7329566409902899             2.7150548323250900            -5.4245731058813300
O             10.4196364728105699             2.0671728664160800            -3.9431101591411100
H             11.4822522139503800             4.5418054570411099            -3.8739235346922198
O             11.9919207192287196             3.4368743529898298            -2.1962447464086399
C             16.8833595710591098             5.1625262991643996            -5.3081681653370199
H             10.1122405836502391             1.3594575624013800            -4.5252281429630701
C             11.4296308445754100             4.4639971065706296            -1.3639556134362800
C             18.3228294123090087             4.9287076510933296            -4.8554928476731103
H             16.4632594875831693             6.0147231127450400            -4.7502393293924996
H             16.8664609942806116             5.4001680531711500            -6.3786289401260197
C             19.0415709753061293             3.8964027154365999            -5.7059534354876700
O             18.9647830980487200             6.2163913017185202            -4.9475275237280796
H             18.3205162722006207             4.6061171798131202            -3.8015961481611300
H             20.0852958195354496             3.7986986876999098            -5.3890449602879000
H             18.5646625555551701             2.9151715922972001            -5.6116453750496396
H             19.0228268109986907             4.1936556450296099            -6.7611703523371798
H             19.7544993851806510             6.1718181391439604            -4.3819837588802102
H             11.0708369889668905             5.3002267161666996            -1.9822520016405700
C             10.2553144437515602             3.8263161242608401            -0.6307205094395100
C             12.4628555027194405             4.9750238999603296            -0.3553155636567600
H             10.6218609248217994             2.9335553837444199            -0.0985918607653000
O              9.2157669097061703             3.4633294193829700            -1.5407101895879201
C              9.6797151251629607             4.8118144843718298             0.3710625361877400
H             12.8754196141235209             4.1258231737224902             0.2095220397114900
O             11.8219224862532908             5.8991858446687804             0.5530015214406599
C             13.5858727101545202             5.7255789311574699            -1.0260648484466799
H              9.6072627855369106             2.8774357150068099            -2.2120110255199599
H              9.2843321917702895             5.6817813106360600            -0.1753406649194000
O              8.6505792096965202             4.2315775882381503             1.1751432934021300
C             10.7704518183321998             5.3272424259697404             1.3131627588442700
O             14.5587988090178193             6.0831598767725499            -0.0404849147410500
H             14.0336961665970303             5.0746663193007198            -1.7840817903708099
H             13.1879725050329704             6.6215287872701598            -1.5266030813606699
H              7.9363709600905201             3.9441227009703002             0.5904977466296900
H             10.3780511184112196             6.1417607906802001             1.9335828725274300
C             15.8914274121639902             6.1369072940827198            -0.5468745195742600
C             16.0933770402523706             7.2662037189132400            -1.5521763771733299
H             16.1612850546871591             5.1730679187494104            -1.0067779143745701
H             16.5403539519492995             6.3011464401066704             0.3228239326168000
C             15.9139026066536093             8.6328410422888897            -0.9164588854651901
O             17.4334509738010297             7.0893808169051598            -2.0484255822901600
H             15.3846032668038504             7.1417870863187503            -2.3856932952102201
H             16.0862728798990098             9.4284223323065603            -1.6491389897179600
H             14.8954978250508994             8.7450683249128502            -0.5265975992841900
H             16.6238963683607714             8.7556920997014096            -0.0879558568126000
H             17.5496765680341795             7.6762838007102303            -2.8073154066024801
H             13.8816656373451792            10.3063715187830507             4.8995095068822900
H             13.3858900738719893             8.6522400742564205             5.3029468906023203
H             15.1059595543638192             9.0991088329979206             5.3661793487413503
O             19.0084213493699714             5.1686186634977496             7.6456523317410996
O             21.1577587830691698             5.9593425258806203            -3.0049950193271999
C             19.3276702178996906             5.7925062170749797             5.2221235741808298
C             19.0727197600663203             7.1429521487712204             4.5235504233733499
C             19.6222526392920784             7.1760501262306304             3.1084044247032598
C             18.9728989182869796             6.0468486171587497             2.2795074012722001
C             18.7350167336293190             6.1181323801349601             6.6055491897536296
C             18.6029763723074488             4.7048565531863300             4.4324675566231297
C             19.5519806751361891             8.1920168288116102             5.5399731488585902
C             19.0764840825734190             4.6737291626607798             2.9705243676314401
C             19.2385327800252703             7.5472746714668997             6.9167203550041698
C             19.3950176327296795             8.4985229741122694             2.3839941491581600
C             20.8192830366113810             5.4549317047662704             5.3689554725293700
C             19.5307259940043494             6.0504349077787296             0.8613565847110900
C             20.1925139881979590             8.5117770345070305             1.0839764411450199
C             20.1178437560198411             7.2085620651949496             0.3191891973004300
C             19.4796361598159606             4.9047456326173497             0.0540670672355900
C             20.6692929651957300             7.1767667723660100            -0.9661637359431799
C             20.0085561059931507             4.8775611566583104            -1.2298573580647401
C             20.6220353936285505             6.0207910117524799            -1.7317197529390900
H             17.9738974664376805             7.2394798472959803             4.4454357534335802
H             20.7101221216956191             7.0012745698723604             3.1475765896179801
H             17.8965323841998192             6.2962008207786297             2.2269568316056598
H             17.6432492749569185             6.1192280948058304             6.5133923442304598
H             17.5211042019791599             4.9117274257094996             4.4586881696818601
H             18.7564274574369101             3.7175931010157601             4.8904798203736002
H             19.0480089241705990             9.1539127420752102             5.4074013547341000
H             20.6284977176773410             8.3694777364879407             5.4262262234236402
H             20.1164862996199396             4.3253472728277202             2.9186088554983800
H             18.4745931176292792             3.9358718182999302             2.4281630611227700
H             20.1354309528267486             7.4874814619262500             7.5445610788614497
H             18.4871460963613998             8.1089854800984504             7.4810976681141099
H             19.6987644940356184             9.3464746473577307             3.0090148760825701
H             18.3196535546575205             8.6152878380872693             2.1801044577622801
H             20.9358481000088794             4.4634624327920500             5.8251124506766097
H             21.3326998871049298             5.4315461386232702             4.4049824594389699
H             21.3481608488843797             6.1776710032221001             5.9998930867699301
H             21.2485790646014010             8.7156534026970007             1.3127632568322400
H             19.8633687773056806             9.3287739329284491             0.4294172601242200
H             19.9632026257259696             5.1611528392086798             7.8029442695573197
H             19.0164958436722600             3.9969089115680299             0.4297693877881500
H             21.1305710831636588             8.0742323301107195            -1.3767481972280000
H             19.9483438720830009             3.9806572938237799            -1.8372007982772600
H             21.6235240854860393             6.7881422690916402            -3.1918036470716400
