243
C=0 M=1 ++ Energy: -4112705.688616261 kcal/mol (wB97X-V / def2-TZVP / CPCM(Water)) ++ ChemEnsembleNo: 1 ++ ConformerNo: 1 ++ Version: 1.12.0b5
H             11.7567955553394903            10.1035381703749998             2.6390673311184298
O             11.7471793810842602            10.1367808525479397             3.6047453529497102
C             11.3374104066339800             8.8469138458310308             4.0900580110937996
C             12.3964962235956992             7.8195141338468401             3.7096288718254899
C             11.1584289615234304             8.9625786179961899             5.5899909063521598
H             10.3824877126479205             8.5557083945916705             3.6220589723080900
O             11.9406332616244200             6.5282706742119698             4.0991127199530597
H             12.5692250061797193             7.8480535561360103             2.6194965014442499
H             13.3480797950414907             8.0622783836454897             4.2153168428765904
C             12.8772550239217303             5.5182356987356096             3.7401765975931598
C             12.3802833662760392             4.1681098878858496             4.1881760314140504
H             13.0243868494100798             5.5004519751743599             2.6511301936104101
H             13.8516471837458699             5.7157710193764499             4.2181055732213402
H             13.0717833869629807             3.4129728851278700             3.7835630709794299
O             12.4164402136555392             4.1302925990650197             5.6328731700716297
C             10.9573796510409007             3.8305686956201801             3.7392599841409799
C             12.1505689783110000             2.8451090346927002             6.1724522977954903
H             10.2589568115173808             4.5910887584513302             4.1155635966038400
O             10.8739815703236697             3.7383416796010098             2.3123833105292699
C             10.5568841604755796             2.4578279102557299             4.2685518438998997
H             12.2219047914484804             2.9623778423644000             7.2616954493031196
O             13.0691098600399709             1.8857750156191999             5.7087788285116101
C             10.7392380359953403             2.4083658962445500             5.7772399974437398
H             11.2117181963512706             1.7034134528462499             3.7996954010360402
O              9.1896276588704300             2.1719819694834901             3.9875773080156400
C             14.1422512444218906             1.5108259859121800             6.5829172602461696
H             10.0371165164847902             3.1217511619432701             6.2375212336129797
O             10.5275759217916605             1.0995954114339199             6.3075329805863500
H              9.0291975224825496             2.3889908963760500             3.0511422114853102
H             14.0185657028775896             1.9868148545968001             7.5653388910088299
C             15.4965502265733903             1.9059708574654799             5.9915055727343303
C             14.0613916031318897            -0.0046890077005100             6.7345230335539004
H              9.6239034095240097             0.8322444219280400             6.0930241574177497
H             15.6049725091828400             1.4500350379485301             4.9948741259038396
O             16.5323870345938211             1.4054684602807299             6.8657358352094802
C             15.7115670598011299             3.3918043210537800             5.8252039317151398
H             14.0984404077385292            -0.4576922019536800             5.7294106673890504
O             12.8686449989084206            -0.3961910446218100             7.4097591477901403
C             15.2391209893356496            -0.5086695086774700             7.5517388228901998
C             16.5563220559627418            -0.0079389809417100             6.9562143030814498
O             15.3449239051168291             4.0843074242210902             7.0119244672981900
H             16.7736936322847185             3.5615563603150999             5.5860300640839498
H             15.1100921566191495             3.7487369660237100             4.9754823690002299
H             12.1146417554181092            -0.0339665983367600             6.9116613145877697
H             15.1610989255323503            -0.1012275996743600             8.5724897600863503
O             15.2942297511160294            -1.9355432592896500             7.5965871897081403
H             17.3968018108765605            -0.2499834755434200             7.6187880926644196
O             16.7245356367838589            -0.6068310403901300             5.6901448231708098
C             15.7530496098246395             5.4566633256776003             6.9923387843664404
H             14.4483111558968496            -2.2506700767697798             7.9429272511648303
C             17.9909358438095097            -1.1927051341688599             5.3682029415682404
C             14.8141181323461399             6.2416661789149703             7.8861297021995203
H             15.6930067104998194             5.8599073496953498             5.9680083438522100
H             16.7931037283622011             5.5462389117913498             7.3439783598164201
C             15.2694400409522206             7.6814203426657803             8.0365941429008600
O             13.4894879785676594             6.2548462997407004             7.3325633489796900
H             14.7919821614553708             5.7540294427331000             8.8763141913366201
H             14.5440612609978697             8.2437108092967595             8.6321469237387305
H             16.2400151031899398             7.7286310880839100             8.5400758235056600
H             15.3565284020501291             8.1596607386475206             7.0542609884099399
H             13.3313386157121005             5.4042633412772600             6.8882369499652896
H             18.6043252463709301            -1.3075099621118000             6.2731581826433400
C             18.7380453694817497            -0.3503227675490500             4.3335037698669003
C             17.6749497890939402            -2.5629593998729301             4.7783202026309999
H             18.0963189418908712            -0.2227266957555700             3.4470929875790599
O             19.9464868514388911            -1.0470753782983599             3.9640771559308501
C             19.1248112741824983             1.0302911235039200             4.7983336709977804
H             16.9783999358546289            -2.4183614271618401             3.9345551986401199
O             17.1021418936177412            -3.4310816183058801             5.7522309243734497
C             18.9466802210044882            -3.2192899720566199             4.2655662989871201
C             19.7052354062552801            -2.2839552861415102             3.3215238821983601
O             19.8933844192942288             0.9552192707061800             5.9904708762784002
H             19.7082901012459111             1.5175211339973200             4.0011700312983800
H             18.2114587989753289             1.6215909540243201             4.9625527504476201
H             16.3793420553852087            -2.9467971133822100             6.1910151693750501
H             19.6077884538544183            -3.4201095026710702             5.1238610027649596
O             18.6818040149963913            -4.4313239828360000             3.5572533489301601
H             20.6941731051181605            -2.7000200780799002             3.0904034603053900
O             18.9477621559894516            -2.1178935325669901             2.1428363788556002
C             20.3459538130992890             2.2432513354664598             6.3969384363816699
H             18.2141955964735089            -5.0287113742037599             4.1563760143726300
C             19.6229934952272487            -2.2097060931813699             0.8829468614519500
C             21.1814293610735689             2.0932820814797499             7.6623635933129401
H             19.4836965269110607             2.9057465330067700             6.5906742203077302
H             20.9607160092785989             2.7028948417817200             5.6019634597112198
C             22.4543283189335199             1.3089049264286301             7.4189089798554102
O             21.5622754880238112             3.4000673356562898             8.1234360017933600
H             20.5719795800921403             1.5868983727989701             8.4288906342275798
H             23.0364596116099207             1.2230012140836299             8.3415283845066792
H             22.2141967254610506             0.3033396309274300             7.0627996543455502
H             23.0657697151384689             1.8097753398590100             6.6587950775593701
H             20.7596131046799108             3.8694142194629300             8.3859149118144192
H             20.6370646607378383            -2.6116442966194202             1.0181265672011199
C             19.6950555310603903            -0.8392666434996600             0.2046035447677500
C             18.7940740241346198            -3.1715649621950202             0.0389144785618200
H             18.6790669331124803            -0.4190232864981200             0.1393123422537400
O             20.2366886027988606            -1.0124525710286401            -1.1252143374693300
C             20.5525715204889714             0.1765026374856100             0.9214980924958600
H             17.7571410161089815            -2.7958991914786702             0.0081192700045600
O             18.8285116270275807            -4.4921118695011701             0.5727104779428800
C             19.3432949657115216            -3.2327337013922399            -1.3759298963505500
C             19.4453017596422200            -1.8299734089572099            -1.9756915672344000
O             21.8777987122719217            -0.3227669803831800             1.0681843088154399
H             20.5608047611342890             1.1118610193087100             0.3386003475133600
H             20.0914387807260297             0.3899229638074400             1.8962955317881800
H             18.5832137898858001            -4.4371219611488399             1.5138002880061601
H             20.3622537524740004            -3.6504445564311498            -1.3415063597175600
O             18.5211872040889887            -4.0162884453533003            -2.2412889585639402
H             19.9801172894492396            -1.8601405065514900            -2.9334730350283800
O             18.1485012335158196            -1.3078704432535899            -2.1392329443801699
C             22.7951946835536283             0.6630582873418700             1.5482209253592401
H             18.4275270637472310            -4.8930963725051901            -1.8447184411080300
C             17.8259118665388101            -0.6807623208616000            -3.3889784395535800
C             22.8228204632066998             0.7540559612382500             3.0771932589425499
H             22.5504958201998811             1.6514322396323200             1.1265641989393200
H             23.7900406761634216             0.3692395548881300             1.1852340961737200
C             23.3303556242193295            -0.5266408191906000             3.7150141633106202
O             23.6192877661481617             1.8876319444933700             3.4636573474739101
H             21.8137875512307211             0.9783345629776800             3.4437276944280200
H             23.2847164635246706            -0.4611544848466600             4.8063885378627900
H             22.7245525058936408            -1.3779981768709400             3.3916132789424398
H             24.3699099377012196            -0.7100346587463600             3.4136281599501599
H             24.5414804437645913             1.6836799220278000             3.2548527558153499
H             18.6240024466256706            -0.8620155872563000            -4.1221075823669899
C             17.6275132330722890             0.8242176922064400            -3.2079229298967400
C             16.5311794740641602            -1.3202866296536100            -3.8729623268861499
H             16.8547096294171510             1.0005566793733500            -2.4427631114534298
O             17.2065044708720905             1.3866737917767500            -4.4683886201175200
C             18.8721421401854990             1.5607183785900800            -2.7725426529726001
H             15.7670460790341096            -1.1993082317524399            -3.0860999244214602
O             16.7110721635071400            -2.6994815655418298            -4.1828306336706698
C             16.0612423333934302            -0.6253924737097900            -5.1408699805507103
C             15.9670816337502206             0.8879364415848801            -4.9325284113708596
O             19.9327046134821906             1.2672445904179099            -3.6754570520217902
H             19.1185596881959512             1.2552542959823401            -1.7451158648310401
H             18.6563887950392697             2.6393855676475502            -2.7633172736856499
H             17.1397629919967294            -3.1232752446173602            -3.4174442151395499
H             16.8075421099132889            -0.8012346856560500            -5.9323403118720197
O             14.7794828987710893            -1.0900358907387599            -5.5669847517211100
H             15.7836512172633299             1.3941352968818601            -5.8891069532697600
O             14.9239901486351396             1.1530805695678401            -4.0199715675462304
C             21.0157335473750813             2.1956945832347698            -3.6173530107722902
H             14.8354767732534203            -2.0493891131701698            -5.6738851953819500
C             13.9718025899692702             2.1723983270528899            -4.3497409879950704
C             21.8452288676335300             2.0851736410926200            -2.3411506010361598
H             21.6514961749885586             1.9606497501557700            -4.4795339050125600
H             20.6379017282164412             3.2270875204347900            -3.7239571387496602
C             23.0507006319830801             3.0029535143163599            -2.4118605197886600
O             22.3213086643188703             0.7456914617298200            -2.1639979383726802
H             21.2251061759330391             2.3741650921642101            -1.4749081651749700
H             22.7368636330878395             4.0490750837618403            -2.4879540782784102
H             23.6604792146644485             2.8852170739368299            -1.5112253979034700
H             23.6686151482428393             2.7575484129043999            -3.2833686551452299
H             21.5667505147047898             0.1932970777948500            -1.8966249328369600
H             14.0717657079513394             2.4660263019540500            -5.4046005682812099
C             14.1537407887328008             3.3939542408529699            -3.4469938935720701
C             12.5999958909096499             1.5491731177034500            -4.1146740733979499
H             14.1129212655817202             3.0610641763671098            -2.3970077024671999
O             13.0843128856425608             4.3289402390759504            -3.7014046233754301
C             15.4629154772782105             4.1225283287330896            -3.6118776099295502
H             12.5736009777443698             1.1597050872538699            -3.0827399849721600
O             12.3356142537866393             0.5040981621985300            -5.0462871206938997
C             11.5137822047537792             2.5984735286887899            -4.2772525756814801
C             11.8018085502879906             3.8129355003857301            -3.3936479487619602
O             15.6446602831320192             4.5448172184581299            -4.9636681093051704
H             15.4627757275189097             4.9990450244908997            -2.9467199068682599
H             16.2708506003996014             3.4521786979152900            -3.2896906255112901
H             13.0998318960687001            -0.1007834485581900            -5.0372543623111303
H             11.5142333169355204             2.9476881417467800            -5.3222427622082504
O             10.2219878543392895             2.0986873432147100            -3.9285916510828400
H             11.0942449022748502             4.6225293510783896            -3.6137010348948699
O             11.7072704362319406             3.4192852798994200            -2.0412738357090001
C             16.7337065002910812             5.4603507851015900            -5.1017990195429697
H             10.0535915749634697             1.3128011213186801            -4.4658971597620596
C             11.0056992909787397             4.2734684849688804            -1.1282301559745900
C             18.0868895333823794             4.7484178701245598            -5.1946426960301801
H             16.7523587971525210             6.1599350775486803            -4.2524412781885497
H             16.5491134782854985             6.0284877011632902            -6.0234561500349404
C             18.2938433874256390             4.0539764643127896            -6.5263771040103400
O             19.1535125773496304             5.6941167120650897            -4.9329761828580203
H             18.1597368130435015             4.0225973339822101            -4.3798541446515298
H             19.2375266239262501             3.4994012679376301            -6.5335220371571801
H             17.4763227784945805             3.3473162284310298            -6.7046377786407998
H             18.3031200496629403             4.7860510583158096            -7.3431829529836703
H             19.0977471841681883             6.4228989595520103            -5.5668553867336099
H             10.5210839002388497             5.0994638687814700            -1.6715435684503801
C              9.9464386507582105             3.3985262845683999            -0.4628298757044700
C             11.9484186714715399             4.8397256880608701            -0.0628477176048800
H             10.4576613250597799             2.5298848813304300            -0.0138218080832100
O              8.9637073746243594             2.9663136047069898            -1.3991889985023800
C              9.2298885721040502             4.1713847607795902             0.6306408985541200
H             12.4708236839954107             4.0125484036006398             0.4413806535226500
O             11.1635091472189494             5.5775176782809099             0.8963752852497300
C             12.9724185963824397             5.7956377774115300            -0.6261373129729501
H              9.4275282983232405             2.5249939432666100            -2.1337133557270298
H              8.6747270673290107             5.0033463846278003             0.1682335996007900
O              8.3390263435555791             3.3419563001270598             1.3785051546703400
C             10.2349329040193098             4.7823667582750797             1.6088898537996501
O             13.8831175391194002             6.1436484579802997             0.4164048034392000
H             13.5032065161944494             5.3004641369672996            -1.4505151979037201
H             12.4650266957341707             6.6886450141834404            -1.0255177890335800
H              7.7326097682385697             2.9244232772165302             0.7516487865589200
H              9.7282951110719100             5.4659029048881500             2.3017656356569902
C             15.1553186347556199             6.5779083224479198            -0.0512295593292000
C             15.1115717737064799             7.9158721235029201            -0.7856816893167800
H             15.6013953585512102             5.8155770637321504            -0.7095132470277800
H             15.7869620695085207             6.6823432006943504             0.8400323917197901
C             14.5017290102949108             9.0191375100522393             0.0629875548269900
O             16.4861725472590592             8.1879277347077899            -1.1125003370802500
H             14.5332078643667799             7.8012405988698701            -1.7173614387961900
H             14.5325938874459304             9.9760041433752509            -0.4694424443238500
H             13.4554136332717604             8.7896483047455405             0.2921171646584300
H             15.0496936478363494             9.1207416850586895             1.0069728117773200
H             16.5086969113978412             8.9967567161103705            -1.6389133944023699
H             10.3904936438909097             9.7042150366457491             5.8302669455054703
H             10.8566006045846599             7.9986310174041799             6.0088664582789901
H             12.1020477953771000             9.2653042018821203             6.0592556995070499
F             22.0258136538263614             5.4474448830366597             4.0806876166051902
F             26.5969805831795405             5.9178518848465798             3.1778480964634102
O             17.5804363952106399             3.6323243634383799             0.1368425099298000
O             20.0935152952267693             5.7750889081504004            -2.4114102856095601
O             18.0360397466764404             4.9899375692627599            -1.9973383446866000
C             21.4135227678338715             4.6625884637228996             1.4023603120337300
C             22.7710182580810994             5.0076474913598101             1.8683695418566399
C             20.9631043929204495             5.0839777528217098             0.1552424130192000
C             20.5496459091059300             3.8750787012915202             2.1884215110952701
C             19.6806756586677096             4.7589941226027399            -0.3079118727695300
C             23.0445402357280393             5.3662607619416898             3.1907074606189898
C             23.8684592638720083             4.9864545753380698             0.9965304709197700
C             18.8232195295281386             3.9840746228559301             0.5105284344655699
C             19.2811778848763886             3.5449905494102198             1.7557917280943700
C             24.3093141229918999             5.6762391892512998             3.6590163701352600
C             25.1576498455269117             5.2914484081611004             1.4153810624992800
C             25.3477674568788700             5.6253862828484502             2.7453766708816199
C             19.2012494965127196             5.1867525144121096            -1.6247627197397800
H             21.6015865518889711             5.6953930889157904            -0.4745979675641300
H             20.8900295712358783             3.5016944788601099             3.1494071121498499
H             23.7057927297757196             4.7033352370764296            -0.0383761942513900
H             18.6221766660421899             2.9325757465446398             2.3641575560385202
H             24.4715850474876397             5.9538318945961297             4.6949059622952101
H             25.9982502562441695             5.2601560396367697             0.7305055741944000
H             17.4294063738422906             4.0529664411616704            -0.7506599814756000
H             19.6870682717355798             5.8853591253668300            -3.3199365798589802
