250
C=0 M=1 ++ Energy: -3943956.458638578 kcal/mol (wB97X-V / def2-TZVP / CPCM(Water)) ++ ChemEnsembleNo: 1 ++ ConformerNo: 1 ++ Version: 1.12.0b5
H             13.0351584742782496            10.3686846704586504             3.4067387285034898
O             13.0393759498195703            10.2785133338139403             4.3685831787576097
C             12.4140501598162700             9.0275316787076392             4.7003081082674703
C             13.2747381697080602             7.8890388841263297             4.1648390749451503
C             12.2658779980860100             8.9810449479900605             6.2073699743779400
H             11.4200681549531193             8.9674674362999802             4.2269287627779804
O             12.6062532586514706             6.6580818929185401             4.4224418866011401
H             13.4330297504999105             8.0168864222838998             3.0800986523229801
H             14.2602147283499203             7.9021490276016202             4.6635232709632097
C             13.3247409246795705             5.5469792403356397             3.9026421312961501
C             12.6500698736491497             4.2651333499630404             4.3233993931343804
H             13.3601182937777399             5.5909102690480896             2.8033529462530802
H             14.3596354325614506             5.5450901932897398             4.2839042681209900
H             13.1792406362382000             3.4339043836540499             3.8320942218009599
O             12.7873722658940405             4.1476582413047103             5.7577454205601599
C             11.1626252674949704             4.1893291651109097             3.9757204246754001
C             12.3352736841864203             2.9106159186644800             6.2828976156787002
H             10.6325218718914893             5.0341659798747598             4.4367506884210401
O             10.9773833670610497             4.1966586951054898             2.5553809416149700
C             10.5797992317678595             2.8756683803815801             4.4857227271309599
H             12.4933045174766892             2.9783067053101000             7.3670125864266502
O             13.0470641059031802             1.8231230037651101             5.7412338080342096
C             10.8471352422981901             2.7412588819599799             5.9756068831668099
H             11.0723880230042901             2.0461802895847998             3.9499231856809400
O              9.1689509926021007             2.8205165339899398             4.3003275820340896
C             14.0528992872274596             1.2160523841952400             6.5643007243857703
H             10.3142021398039496             3.5513322803607701             6.4990452088846897
O             10.4346993863409097             1.4744020225092400             6.4881962937893096
H              8.9804692800800492             3.0327095151517200             3.3673442379244301
H             14.0696751079969307             1.6897115305764601             7.5554508584109499
C             15.4342434752945898             1.3402501467453700             5.9185159596958696
C             13.6785094162729095            -0.2555713462013000             6.7051203535477200
H              9.4973502088898591             1.3605053722338700             6.2809347486129301
H             15.4110637440871692             0.8828093221066800             4.9173252285832998
O             16.3839969434082704             0.6342152871335800             6.7481265771561398
C             15.9300894274510298             2.7568893932441800             5.7475980226364500
H             13.5944228678056600            -0.6909056477108900             5.6949135383524396
O             12.4582620303650895            -0.4203964086421700             7.4210229714151099
C             14.7616036995932607            -0.9894356363421700             7.4775649711475696
C             16.1306230736097511            -0.7565496479254100             6.8367485400324703
O             15.7494693497311307             3.4970550300840202             6.9488318279320502
H             16.9956048072290606             2.7174001224036499             5.4693334325390301
H             15.3781260805876094             3.2335977750253599             4.9229812773797699
H             11.7707492811324901             0.0965270222209000             6.9632818964539904
H             14.8017447701765299            -0.5815153701073400             8.5003098096667706
O             14.5309780008133895            -2.3988686712202498             7.5221963985068001
H             16.9281257304191008            -1.1651530729755999             7.4698277216208000
O             16.1381279699970790            -1.3663269142301500             5.5637825577630702
C             16.3960613909295603             4.7727694115372898             6.9018687354685602
H             13.6458882205163103            -2.5390479042055798             7.8860143094048896
C             17.2321482411572013            -2.2246610191085301             5.2202434090220500
C             15.6969307175562101             5.6935809453850998             7.8816002552251199
H             16.3215702480307101             5.2029724276599296             5.8889636181030198
H             17.4618902328416503             4.6667576791921999             7.1596395601013896
C             16.4197109547457494             7.0225815045586701             8.0020867278977406
O             14.3540548969021202             5.9613169900780196             7.4495420190025001
H             15.6714548708132799             5.1944078738263704             8.8658799568360802
H             15.8628200523098002             7.6932448383039400             8.6632171392321506
H             17.4217514497003805             6.8807155062249601             8.4187326144992305
H             16.5086227472363909             7.4996163097118798             7.0193352379611502
H             14.0104213950844301             5.1735458389663096             6.9950431892318896
H             17.8113460710967502            -2.4868144558908001             6.1167012346884597
C             18.1452372206973500            -1.5555536341791001             4.1914963077729404
C             16.6059938258641004            -3.4832555269521199             4.6303455403976299
H             17.5420209005565013            -1.2395279794839300             3.3258990852569799
O             19.1411092132659597            -2.5098472181075699             3.7691667308570498
C             18.8655002736843613            -0.3320770299936100             4.7051045697779204
H             15.9379526828354106            -3.1825147281061601             3.8053175930670098
O             15.8787208500290795            -4.2130384222485402             5.6153706524581199
C             17.6879993062900986            -4.4008288792709900             4.0847121412711402
C             18.5978501601518609            -3.6422143275842500             3.1179175167562798
O             19.5260751789050815            -0.6375425378398800             5.9266365987194298
H             19.5930248609911217             0.0011005192692600             3.9460267967297300
H             18.1304927858597082             0.4730780843537000             4.8580841064417699
H             15.2998806109760999            -3.5841657110396401             6.0842265562174198
H             18.3132256234614594            -4.7458656006920803             4.9236429861724202
O             17.1437539943283817            -5.5217547358222099             3.3854789823180602
H             19.4568881477050297            -4.2614327344479701             2.8285443081876398
O             17.8382530428041584            -3.2762121241954199             1.9875608312738200
C             20.2259882449083008             0.4871905221283500             6.4477836667690598
H             16.5475107859956196            -5.9850463710813600             3.9891923401570399
C             18.3918085559955991            -3.4956995009730099             0.6851102294902500
C             20.8656125697144113             0.0841086966492600             7.7719021126437902
H             19.5273409742416106             1.3270327430177999             6.6090393096989803
H             21.0074279897946283             0.8185147832469200             5.7413257555576402
C             21.9504868475880706            -0.9580139447318500             7.5923012520147299
O             21.4759916068517391             1.2400461699862200             8.3683615061514498
H             20.0767168877075584            -0.3091913451529300             8.4341654743080205
H             22.3758186500725813            -1.2425498895716700             8.5595145082679398
H             21.5402328649493917            -1.8517532023979300             7.1139343808745501
H             22.7506688725578385            -0.5601627726471000             6.9572478273584100
H             20.7749848598440110             1.8647844447986499             8.5955546771302007
H             19.2891816661692204            -4.1269699378311797             0.7487641079452800
C             18.7371068332484612            -2.1626917517838700             0.0178460305736300
C             17.3055552700020812            -4.2199579758234398            -0.1033359070279900
H             17.8483987253987593            -1.5129526001062099             0.0345985771842600
O             19.1189803662515594            -2.4208024524730698            -1.3528153881022700
C             19.8608399017392507            -1.3983932554602700             0.6770349868634600
H             16.3817564686508597            -3.6202160590906698            -0.0412339564953400
O             17.0816550825224205            -5.5305472952837000             0.4081201596361500
C             17.7085723084101190            -4.3547002281260596            -1.5614427103126001
C             18.0816738018243299            -2.9895120497267298            -2.1391424788992000
O             21.0186680242356800            -2.2228489475845898             0.7879082204157400
H             20.0807904181105989            -0.5060290712929501             0.0701610010059300
H             19.5162796879166009            -1.0636755646463900             1.6655025183616099
H             16.9196016209728590            -5.4499563153594597             1.3655960097958699
H             18.6007744791227907            -4.9976363339541203            -1.6275926769861400
O             16.6561547700557995            -4.8905958013172102            -2.3643418685236499
H             18.4984496478375107            -3.0952140126511498            -3.1493347231039799
O             16.9362557921528385            -2.1721720002219400            -2.1471001970403401
C             22.2391561209273512            -1.4863231562700601             0.8306215950823200
H             16.3900617899086001            -5.7353054127377101            -1.9762420415397399
C             16.6285984706078196            -1.4417078545903299            -3.3413688630855698
C             22.4349305533534391            -0.6986604861466700             2.1252214914483001
H             22.2920030067580512            -0.7965144081755799            -0.0269224537281700
H             23.0436530568731612            -2.2255300177942199             0.7330078042491700
C             22.5020259217562000            -1.5913026803248100             3.3513474059664898
O             23.6646203561176414             0.0206389484321800             1.9201901919776501
H             21.6067116737022715             0.0214740869895700             2.2390325252180001
H             22.6614514008755599            -0.9906636148511599             4.2547155964679000
H             21.5629919019154599            -2.1398578836808100             3.4728049939571899
H             23.3253907396634794            -2.3088721280365401             3.2554012494870799
H             23.8512660884323786             0.5158890277533200             2.7275799629249500
H             17.2405981645458191            -1.8017931451654401            -4.1798538342973197
C             16.8565017028509097             0.0588005396501500            -3.1500339677266802
C             15.1604850768525292            -1.7097005326305601            -3.6399642994249302
H             16.2634600300914300             0.4123198269885000            -2.2911181979307100
O             16.4405954394368017             0.7394922683664800            -4.3497239884673702
C             18.3000407031838108             0.4346165727389800            -2.9003351778311699
H             14.5606886963306206            -1.4082743366276900            -2.7638291573539200
O             14.9337549678938295            -3.0824967239602099            -3.9502028069042701
C             14.7377465127728104            -0.8971347823639000            -4.8499840730018100
C             15.0773216552038694             0.5838667542396400            -4.6793418649294898
O             19.1181952495883287            -0.1580477530120400            -3.9045965389882999
H             18.5854045255967399             0.0898347602539600            -1.8960640136093700
H             18.3903234075143409             1.5324775790737999            -2.9275211689872300
H             15.3667562670010405            -3.6212779032765900            -3.2632237128687702
H             15.3060887836977404            -1.2531325893344600            -5.7223741168546498
O             13.3356552059488500            -1.0103007176267900            -5.1038584459620804
H             14.9522764346767900             1.1072153048484099            -5.6352957687719396
O             14.2344823873704005             1.1475184882121601            -3.6955211115661601
C             20.4196323656417000             0.4205710907796300            -4.0111585182127802
H             13.1421363623887597            -1.9348022713851001            -5.3078627681945996
C             13.6073016468794208             2.3978758840111301            -4.0097074245455904
C             21.3412443891734007             0.0803482397102500            -2.8435237870224301
H             20.8461818023821692             0.0169618748351100            -4.9381209250477101
H             20.3387905928423507             1.5163093366698901            -4.1040893358207304
C             22.7323714338425305             0.6346606009706099            -3.0898130767696901
O             21.4517351172076509            -1.3389010071872600            -2.6810226522568699
H             20.9364172435612304             0.5261300932483900            -1.9193749122873700
H             22.6975950064301486             1.7207595918279801            -3.2208713138734000
H             23.3854637683705384             0.4084292348169400            -2.2416555885884999
H             23.1653212689190688             0.1883242193162900            -3.9924847839583499
H             20.6177175731850788            -1.6577217317290200            -2.2952588277239201
H             13.8520191893888907             2.7067744161465899            -5.0353475335447602
C             14.0712558800308596             3.4778219044770999            -3.0321127488191402
C             12.1049938798917402             2.1726850911929501            -3.9136078429795100
H             13.9329842442053202             3.1207802321788898            -1.9996966983050100
O             13.2952915241145408             4.6755398158404304            -3.2462521116901102
C             15.5258629049342396             3.8542561794091301            -3.2004953638780900
H             11.8711090295512598             1.7242582620199001            -2.9354867358201400
O             11.6567764947049994             1.3008416208230200            -4.9607579060740896
C             11.3605874304471204             3.4877527844859899            -4.0498429079363598
C             11.9075106792696896             4.5062977159462800            -3.0469083890928101
O             15.7450994668367006             4.2865586299547402            -4.5426208406779498
H             15.7677638744711892             4.6608796892766700            -2.4936171698705301
H             16.1472309037804003             2.9801857751792902            -2.9548785100962101
H             12.1038154670164992             0.4401219949711800            -4.8350945363768298
H             11.5295255422763194             3.8930576181582599            -5.0605914650436299
O              9.9612468523017199             3.3455897589052199            -3.8032351340817701
H             11.4558947246101894             5.4920162890569104            -3.2190531006241798
O             11.6315661519843498             4.0453756060467398            -1.7404449279423999
C             16.8800504412412984             5.1370107733122703            -4.6941972177896698
H              9.6127680617340499             2.7028925649263100            -4.4361055822924103
C             10.9582141221544003             4.9140437665240499            -0.8195421043880901
C             18.2138087114213398             4.3844426581535698            -4.6920000397447303
H             16.8921067523218014             5.9019223296493299            -3.9013209500300499
H             16.7576584709573915             5.6400072883056804            -5.6632760762955101
C             18.2998354024764502             3.3743655317244401            -5.8223858249039102
O             19.2806986448988198             5.3473791778368396            -4.7534839378478102
H             18.3460021904786004             3.8796456240480102            -3.7254760937273499
H             19.2704509975725884             2.8682698920973300            -5.8143939246352998
H             17.5156393119318814             2.6184969532559501            -5.7177131148404499
H             18.1730209347261287             3.8770048899354999            -6.7902241391730502
H             19.2644873249437509             5.7432673749857397            -5.6358815459182097
H             10.4609035027406794             5.7352758318436896            -1.3597352241840599
C              9.9059945706975601             4.0400876588722401            -0.1459665564072100
C             11.9415795303995100             5.4835177590525497             0.2091065860155900
H             10.4116399560541897             3.1426223143009899             0.2483588744046400
O              8.8760569676129304             3.6689588565953102            -1.0585646169433700
C              9.2548001953650303             4.7849870953139204             1.0043402462854201
H             12.5413582654945301             4.6563882581284401             0.6203083607419900
O             11.2176815151547693             6.1394411482033702             1.2695462480419799
C             12.8503683597464402             6.5383866702584301            -0.3964738949086500
H              9.3009831412166104             3.3536757074122701            -1.8769748016959600
H              8.7198335137046499             5.6611223894818004             0.6044485439087900
O              8.3537076373855701             3.9545184634259898             1.7385972528686200
C             10.3201546712114194             5.3016390723650799             1.9711435776040700
O             13.8503033309927801             6.9696457533853904             0.5273171692266900
H             13.3035619807206693             6.1439285162661799            -1.3156055274314999
H             12.2485313484312694             7.4188164187446803            -0.6548767769641100
H              7.7268841205921603             3.5709527587773300             1.1100181299220400
H              9.8637700981708498             5.9353080662484601             2.7424202756003901
C             15.0683505552412598             6.2258194841011898             0.4468888743978100
C             16.0345893512422784             6.8273704577120400            -0.5774337896370300
H             14.8746416832392505             5.1715291581896699             0.1955850293521200
H             15.5290648104223692             6.2608845106825504             1.4444963210713999
C             16.4427931339519908             8.2461563856561693            -0.2211462282545200
O             17.1765872044237611             5.9618372495415803            -0.7027542029166000
H             15.5587914177919604             6.8174945413842396            -1.5679925962547601
H             17.1148327656603811             8.6558158237903395            -0.9814184756643100
H             15.5610180245513003             8.8904959816770006            -0.1500127351317400
H             16.9558096505591003             8.2605848494773397             0.7491426856878000
H             17.6835787578908104             6.0280097759161801             0.1183728377993500
H             11.6427785777297803             9.8093815539932692             6.5582166465616796
H             11.7997572713269108             8.0398157696924297             6.5115917963012997
H             13.2502357354292997             9.0511449434568902             6.6851359920893900
O             12.5851578052939903             1.0830008659409300            -7.6084482914621399
O             14.0481125613523599             2.7937946727068601            -7.5431689117657097
C             19.1851772629704094            -3.2851317494440102            -7.8458456950818203
C             18.2887211149248401            -2.5441109875137800            -6.8338113788939499
C             17.2854645877579287            -1.6165190220199499            -7.4659526146301198
C             15.3783783147885291             0.1214722440920100            -8.6242607671131797
C             14.3319961919802896             1.0580466020561099            -9.2176486525064796
C             20.1037265237770590            -4.2586044341780598            -7.1062558368832898
C             19.9977414208730693            -2.3045987022434402            -8.6919008189360003
C             17.4654784204940405            -0.2314331464822100            -7.4451703645864100
C             16.1387734106997485            -2.1186106965436600            -8.0905351131793104
C             16.5281334950142309             0.6260207341144201            -8.0116674143877606
C             15.1967369139313995            -1.2638222418685101            -8.6571267301021493
C             14.9207870279739705             2.0662019501918198           -10.2061546158369101
C             13.6502114302512094             1.7609586633046601            -8.0533703291385894
H             18.5288642573790803            -3.8619019859489598            -8.5151202804394295
H             17.7571822797025014            -3.2908060171619198            -6.2269870810391099
H             18.9342871081384310            -1.9739325425017100            -6.1507688832329501
H             13.5774191909293300             0.4422882421150400            -9.7184011440865401
H             19.5273192793623807            -4.9747255560799397            -6.5096050854149397
H             20.7280798325627984            -4.8215733335465503            -7.8087208898228297
H             20.7699257202495815            -3.7113243020874398            -6.4267206605922702
H             20.6350855234413793            -1.6832811876387801            -8.0490486475600704
H             20.6451678647983883            -2.8404177500607699            -9.3947477039358898
H             19.3486138161027590            -1.6364655585251899            -9.2676854362982901
H             18.3445441284502309             0.1831421353360200            -6.9562022811318602
H             15.9706375795338200            -3.1935620161178702            -8.1167531746024100
H             16.6890721656155812             1.6996043622870900            -7.9613323304369104
H             14.3052566367080800            -1.6768502984840199            -9.1238757321349500
H             14.1301526037048593             2.6956436461173499           -10.6268682233484704
H             15.4158335066812295             1.5332618652784200           -11.0229545220586704
H             15.6516184675405103             2.7166792148168901            -9.7194946407506695
H             12.2673421879815692             1.4633357521529200            -6.7526236045351098
